version 3
run Iteration-3-20250425-02:33:07-45639
attr configname Iteration
attr datetime 20250425-02:33:07
attr datetimef 20250425-023307
attr experiment Iteration
attr inifile omnetpp.ini
attr iterationvars "$i=4, $0=12-4"
attr iterationvarsd i=4/12-4
attr iterationvarsf i=4,12-4-
attr measurement "$i=4, $0=12-4"
attr network Network
attr processid 45639
attr repetition 0
attr replication #0
attr resultdir results
attr runnumber 3
attr seedset 3
itervar i 4
config **.resourcePool.amount 4
config **.resourcePool1.amount 12-4
config network Network
config sim-time-limit 365d
config simtime-resolution s
config **.allocate.resourceModuleName "\"resourcePool\""
config **.delay.delay "uniform(20d, 80d)"
config **.deallocate.resourceModuleName "\"resourcePool\""
config **.allocate1.resourceModuleName "\"resourcePool1\""
config **.delay1.delay "uniform(10d, 30d)"
config **.deallocate1.resourceModuleName "\"resourcePool1\""
config **.source.interArrivalTime exponential(8d)

vector 0 Network.allocate queueLength:vector ETV
attr interpolationmode sample-hold
attr recordingmode vector
attr title "queue length"
vector 1 Network.allocate1 queueLength:vector ETV
attr interpolationmode sample-hold
attr recordingmode vector
attr title "queue length"
vector 2 Network.sinkStat lifeTime:vector ETV
attr interpolationmode none
attr recordingmode vector
attr title "lifetime of arrived jobs"
attr unit s
0	0	0	0
0	14	2541964	1
0	16	2939118	2
0	18	3839905	1
0	23	4505506	2
0	25	4534176	3
0	27	4694699	4
0	29	4891601	5
0	34	4928123	6
0	36	4996013	7
0	38	5397784	8
0	40	5665095	7
0	45	5952193	6
0	50	6218145	7
0	52	6246445	6
0	60	6942094	7
0	62	7244016	8
0	64	7547973	7
0	75	8023551	8
0	77	8316755	7
0	82	9091996	6
0	90	9713755	7
0	92	9921181	8
0	94	10048416	7
0	99	10169077	6
0	104	10276988	7
0	109	11093542	8
0	117	11704140	9
0	119	11829798	8
0	127	12105471	9
0	129	12524511	10
0	134	13068269	11
0	136	13366871	10
0	141	13717096	9
0	146	13928301	8
0	151	14048000	9
0	153	14387363	10
0	155	14982984	9
0	163	15263352	10
0	174	16806931	9
0	179	17033285	8
0	184	17841190	9
0	189	18985203	10
0	191	19140023	9
0	196	19274778	8
0	204	20277185	9
0	209	20447672	8
0	214	20646255	9
0	219	21210333	10
0	221	21565197	9
0	226	22074503	10
0	228	22250733	11
0	233	22513014	12
0	238	22873649	13
0	240	22936392	12
0	245	23204431	11
0	250	23445476	12
0	252	23683953	13
0	254	23841094	14
0	256	24264047	15
0	258	24996892	16
0	266	25167549	15
0	271	25562954	14
0	276	26328148	13
0	281	26358510	14
0	283	26682409	15
0	291	27095378	14
0	296	27101467	15
0	301	28089558	16
0	303	28244987	17
0	305	28290533	18
0	310	28789316	19
0	312	29213215	18
0	317	30060509	19
0	319	30330915	18
0	324	30517285	19
0	326	30828291	20
0	331	31393412	19
1	0	0	0
2	32	4920916	4317061
2	58	6780295	4238331
2	70	7591671	5721356
2	73	7599275	7046120
2	88	9432984	6493866
2	107	10504103	8544385
2	112	11562468	6670867
2	115	11638460	7104284
2	125	11867606	7362100
2	132	12964865	8270166
2	161	15026203	10098080
2	166	15643633	10245849
2	169	15882606	9664461
2	172	16335518	11339505
2	187	18832810	10809259
2	202	19457382	12213366
2	207	20298129	10376948
2	217	20657197	13715103
2	231	22469144	12755389
2	236	22671847	12394859
2	261	25093208	13999666
2	264	25121861	13417721
2	286	26916821	14811350
2	289	27044594	14520083
2	299	27672493	13624493
2	308	28314327	15246058
2	329	31274086	12288883

