version 3
run Iteration-9-20250425-02:33:09-45669
attr configname Iteration
attr datetime 20250425-02:33:09
attr datetimef 20250425-023309
attr experiment Iteration
attr inifile omnetpp.ini
attr iterationvars "$i=10, $0=12-10"
attr iterationvarsd i=10/12-10
attr iterationvarsf i=10,12-10-
attr measurement "$i=10, $0=12-10"
attr network Network
attr processid 45669
attr repetition 0
attr replication #0
attr resultdir results
attr runnumber 9
attr seedset 9
itervar i 10
config **.resourcePool.amount 10
config **.resourcePool1.amount 12-10
config network Network
config sim-time-limit 365d
config simtime-resolution s
config **.allocate.resourceModuleName "\"resourcePool\""
config **.delay.delay "uniform(20d, 80d)"
config **.deallocate.resourceModuleName "\"resourcePool\""
config **.allocate1.resourceModuleName "\"resourcePool1\""
config **.delay1.delay "uniform(10d, 30d)"
config **.deallocate1.resourceModuleName "\"resourcePool1\""
config **.source.interArrivalTime exponential(8d)

vector 0 Network.allocate queueLength:vector ETV
attr interpolationmode sample-hold
attr recordingmode vector
attr title "queue length"
vector 1 Network.allocate1 queueLength:vector ETV
attr interpolationmode sample-hold
attr recordingmode vector
attr title "queue length"
vector 2 Network.sinkStat lifeTime:vector ETV
attr interpolationmode none
attr recordingmode vector
attr title "lifetime of arrived jobs"
attr unit s
0	0	0	0
0	242	22403621	1
0	244	22796025	0
0	248	22798927	1
0	250	23188376	0
1	0	0	0
1	47	3927403	1
1	50	4336926	2
1	53	4618605	3
1	55	4629735	2
1	60	4791397	3
1	66	4973211	4
1	69	5539524	5
1	74	5650506	4
1	79	5671695	5
1	82	5803459	6
1	88	6249832	7
1	93	7166273	6
1	98	8051803	7
1	100	8066262	6
1	107	8985953	5
1	111	10144057	4
1	116	10156454	5
1	119	10208677	6
1	125	10878600	7
1	127	10937817	6
1	138	11394766	7
1	141	12124006	8
1	143	12208047	7
1	147	12906991	6
1	154	14460909	5
1	159	15057764	6
1	161	15212654	5
1	166	15604886	6
1	168	15618040	5
1	175	16213712	4
1	183	16380451	5
1	186	16645332	6
1	191	17382474	5
1	195	17926125	4
1	209	19028770	5
1	211	19924096	4
1	221	20484620	3
1	231	21477376	2
1	238	22354143	1
1	246	22796025	2
1	252	23188376	3
1	254	23198951	2
1	259	23256535	3
1	261	23460336	2
1	266	23463982	3
1	269	23502086	4
1	272	23625027	5
1	277	24386707	4
1	282	24482849	5
1	288	25111642	6
1	297	25724543	7
1	299	25930923	6
1	304	25986790	7
1	306	26466405	6
1	310	26868971	5
1	315	27184278	6
1	318	27975479	7
1	320	28026928	6
1	324	28432962	5
1	341	29184042	6
1	343	29688742	5
1	347	29780332	4
1	358	29990058	5
1	364	30597674	6
1	369	30833725	5
1	373	30866132	4
1	378	31352401	5
2	57	4629735	3831317
2	76	5650506	4846854
2	95	7166273	6099878
2	102	8066262	8059054
2	109	8985953	8665437
2	113	10144057	7516425
2	129	10937817	9862152
2	145	12208047	9682679
2	149	12906991	9827865
2	156	14460909	10586322
2	163	15212654	12481887
2	170	15618040	9996281
2	177	16213712	11422085
2	193	17382474	13831595
2	197	17926125	11615516
2	213	19924096	13714534
2	223	20484620	12092112
2	233	21477376	8142000
2	240	22354143	10969464
2	256	23198951	12822628
2	263	23460336	12508859
2	279	24386707	8171813
2	301	25930923	9764460
2	308	26466405	8021828
2	312	26868971	6170239
2	322	28026928	9724207
2	326	28432962	11493338
2	345	29688742	9590055
2	349	29780332	11143225
2	371	30833725	9704546
2	375	30866132	10800502

