version 3
run Iteration-8-20250425-02:33:09-45664
attr configname Iteration
attr datetime 20250425-02:33:09
attr datetimef 20250425-023309
attr experiment Iteration
attr inifile omnetpp.ini
attr iterationvars "$i=9, $0=12-9"
attr iterationvarsd i=9/12-9
attr iterationvarsf i=9,12-9-
attr measurement "$i=9, $0=12-9"
attr network Network
attr processid 45664
attr repetition 0
attr replication #0
attr resultdir results
attr runnumber 8
attr seedset 8
itervar i 9
config **.resourcePool.amount 9
config **.resourcePool1.amount 12-9
config network Network
config sim-time-limit 365d
config simtime-resolution s
config **.allocate.resourceModuleName "\"resourcePool\""
config **.delay.delay "uniform(20d, 80d)"
config **.deallocate.resourceModuleName "\"resourcePool\""
config **.allocate1.resourceModuleName "\"resourcePool1\""
config **.delay1.delay "uniform(10d, 30d)"
config **.deallocate1.resourceModuleName "\"resourcePool1\""
config **.source.interArrivalTime exponential(8d)

vector 0 Network.allocate queueLength:vector ETV
attr interpolationmode sample-hold
attr recordingmode vector
attr title "queue length"
vector 1 Network.allocate1 queueLength:vector ETV
attr interpolationmode sample-hold
attr recordingmode vector
attr title "queue length"
vector 2 Network.sinkStat lifeTime:vector ETV
attr interpolationmode none
attr recordingmode vector
attr title "lifetime of arrived jobs"
attr unit s
0	0	0	0
0	220	18275150	1
0	225	18726185	2
0	227	18775373	3
0	229	19073568	2
0	237	19295748	1
0	242	19498587	2
0	244	19521073	3
0	246	19544224	4
0	248	19842054	3
0	252	19938396	2
0	256	19964329	3
0	258	20021190	2
0	262	20141770	3
0	272	20708819	2
0	276	20725019	3
0	278	20862873	4
0	280	21271617	5
0	286	21505705	4
0	290	21595607	5
0	300	22277356	6
0	305	22638540	5
0	313	23188769	4
0	318	23266245	3
0	326	23557963	4
0	328	23930861	3
0	332	24465946	4
0	341	25148006	3
0	346	25149169	2
0	354	25514650	1
0	358	25694622	0
0	392	27605605	1
0	394	27623754	2
0	396	27696141	1
0	400	28018156	2
0	406	28408506	3
0	408	28502218	2
0	412	28550653	3
0	418	28819813	2
0	426	29072091	3
0	432	29676251	2
0	436	29789912	1
0	440	29954251	2
0	442	30312416	3
0	444	30331019	2
0	452	30785426	3
0	454	30829909	2
0	462	31166757	1
0	466	31331834	0
0	470	31396878	1
0	472	31474959	2
1	0	0	0
1	62	7972618	1
1	65	8177594	2
1	70	8570427	1
1	75	9071917	2
1	80	9230134	1
1	85	9370920	2
1	90	9642754	1
1	94	10170714	0
1	99	10386005	1
1	101	10927244	0
1	182	15779699	1
1	190	16707440	0
1	195	16892848	1
1	197	17113847	0
1	205	17531860	1
1	213	18182046	0
1	250	19842054	1
1	254	19938396	2
1	260	20021190	3
1	264	20176052	2
1	268	20430271	1
1	274	20708819	2
1	282	21346781	1
1	288	21505705	2
1	292	21745723	1
1	296	22049143	0
1	320	23266245	1
1	322	23285212	0
1	330	23930861	1
1	334	24913027	0
1	348	25149169	1
1	350	25301539	0
1	356	25514650	1
1	360	25694622	2
1	363	25762650	3
1	366	26264718	4
1	371	26859849	3
1	376	26874074	4
1	378	26875550	3
1	385	27440116	2
1	398	27696141	3
1	402	28319447	2
1	410	28502218	3
1	414	28606132	2
1	420	28819813	3
1	422	28889188	2
1	428	29672740	1
1	434	29676251	2
1	438	29789912	3
1	446	30331019	4
1	448	30536873	3
1	456	30829909	4
1	458	31041686	3
1	464	31166757	4
1	468	31331834	5
2	39	6446232	4492991
2	45	6679326	3554273
2	72	8570427	6944842
2	82	9230134	7793730
2	92	9642754	6138378
2	96	10170714	6011885
2	103	10927244	9498565
2	106	11083516	4499183
2	109	11127699	5964762
2	115	12169332	3621649
2	148	13929901	6785363
2	155	14475491	5259592
2	162	15407821	7721440
2	165	15565568	3530109
2	192	16707440	4123699
2	199	17113847	4624662
2	215	18182046	5458854
2	223	18465283	5341038
2	235	19193693	9677040
2	266	20176052	7925685
2	270	20430271	4775358
2	284	21346781	5602167
2	294	21745723	4125320
2	298	22049143	4694995
2	303	22535943	8888369
2	311	23042556	7018405
2	324	23285212	6929573
2	336	24913027	6683412
2	339	24963918	5419694
2	352	25301539	7289590
2	373	26859849	8584699
2	380	26875550	8149365
2	387	27440116	7298346
2	404	28319447	8820860
2	416	28606132	7743259
2	424	28889188	8924859
2	430	29672740	10151667
2	450	30536873	11761500
2	460	31041686	10316667

